
                                 *****************
                                 * O   R   C   A *
                                 *****************

           --- An Ab Initio, DFT and Semiempirical electronic structure package ---

                  #######################################################
                  #                        -***-                        #
                  #          Department of theory and spectroscopy      #
                  #               Directorship: Frank Neese             #
                  #        Max Planck Institute fuer Kohlenforschung    #
                  #                Kaiser Wilhelm Platz 1               #
                  #                 D-45470 Muelheim/Ruhr               #
                  #                      Germany                        #
                  #                                                     #
                  #                  All rights reserved                #
                  #                        -***-                        #
                  #######################################################


                         Program Version 4.1.0  - RELEASE  -


 With contributions from (in alphabetic order):
   Daniel Aravena         : Magnetic Properties
   Michael Atanasov       : Ab Initio Ligand Field Theory
   Alexander A. Auer      : GIAO ZORA
   Ute Becker             : Parallelization
   Giovanni Bistoni       : ED, Open-shell LED
   Martin Brehm           : Molecular dynamics
   Dmytro Bykov           : SCF Hessian
   Vijay G. Chilkuri      : MRCI spin determinant printing
   Dipayan Datta          : RHF DLPNO-CCSD density
   Achintya Kumar Dutta   : EOM-CC, STEOM-CC
   Dmitry Ganyushin       : Spin-Orbit,Spin-Spin,Magnetic field MRCI
   Miquel Garcia          : C-PCM Hessian
   Yang Guo               : DLPNO-NEVPT2, CIM, IAO-localization
   Andreas Hansen         : Spin unrestricted coupled pair/coupled cluster methods
   Benjamin Helmich-Paris : CASSCF linear response (MC-RPA)
   Lee Huntington         : MR-EOM, pCC
   Robert Izsak           : Overlap fitted RIJCOSX, COSX-SCS-MP3, EOM
   Christian Kollmar      : KDIIS, OOCD, Brueckner-CCSD(T), CCSD density
   Simone Kossmann        : Meta GGA functionals, TD-DFT gradient, OOMP2, MP2 Hessian
   Martin Krupicka        : AUTO-CI
   Lucas Lang             : DCDCAS
   Dagmar Lenk            : GEPOL surface, SMD
   Dimitrios Liakos       : Extrapolation schemes; parallel MDCI
   Dimitrios Manganas     : ROCIS; embedding schemes
   Dimitrios Pantazis     : SARC Basis sets
   Taras Petrenko         : DFT Hessian,TD-DFT gradient, ASA, ECA, R-Raman, ABS, FL, XAS/XES, NRVS
   Peter Pinski           : DLPNO-MP2, DLPNO-MP2 Gradient
   Christoph Reimann      : Effective Core Potentials
   Marius Retegan         : Local ZFS, SOC
   Christoph Riplinger    : Optimizer, TS searches, QM/MM, DLPNO-CCSD(T), (RO)-DLPNO pert. Triples
   Tobias Risthaus        : Range-separated hybrids, TD-DFT gradient, RPA, STAB
   Michael Roemelt        : Restricted open shell CIS
   Masaaki Saitow         : Open-shell DLPNO
   Barbara Sandhoefer     : DKH picture change effects
   Avijit Sen             : IP-ROCIS
   Kantharuban Sivalingam : CASSCF convergence, NEVPT2, FIC-MRCI
   Bernardo de Souza      : ESD, SOC TD-DFT
   Georgi Stoychev        : AutoAux, RI-MP2 NMR
   Willem Van den Heuvel  : Paramagnetic NMR
   Boris Wezisla          : Elementary symmetry handling
   Frank Wennmohs         : Technical directorship


 We gratefully acknowledge several colleagues who have allowed us to
 interface, adapt or use parts of their codes:
   Stefan Grimme, W. Hujo, H. Kruse,             : VdW corrections, initial TS optimization,
                  C. Bannwarth                     DFT functionals, gCP, sTDA/sTD-DF
   Ed Valeev                                     : LibInt (2-el integral package), F12 methods
   Garnet Chan, S. Sharma, J. Yang, R. Olivares  : DMRG
   Ulf Ekstrom                                   : XCFun DFT Library
   Mihaly Kallay                                 : mrcc  (arbitrary order and MRCC methods)
   Andreas Klamt, Michael Diedenhofen            : otool_cosmo (COSMO solvation model)
   Jiri Pittner, Ondrej Demel                    : Mk-CCSD
   Frank Weinhold                                : gennbo (NPA and NBO analysis)
   Christopher J. Cramer and Donald G. Truhlar   : smd solvation model
   Lars Goerigk                                  : TD-DFT with DH, B97 family of functionals
   V. Asgeirsson, H. Jonsson                     : NEB implementation
   FAccTs GmbH                                   : IRC, NEB, NEB-TS, Multilevel


 Your calculation uses the libint2 library for the computation of 2-el integrals
 For citations please refer to: http://libint.valeyev.net

 This ORCA versions uses:
   CBLAS   interface :  Fast vector & matrix operations
   LAPACKE interface :  Fast linear algebra routines
   SCALAPACK package :  Parallel linear algebra routines


----- Orbital basis set information -----
Your calculation utilizes the basis: def2-SVP
   F. Weigend and R. Ahlrichs, Phys. Chem. Chem. Phys. 7, 3297 (2005).

================================================================================
                                        WARNINGS
                       Please study these warnings very carefully!
================================================================================


WARNING: Geometry Optimization
  ===> : Switching off AutoStart
         For restart on a previous wavefunction, please use MOREAD

INFO   : the flag for use of LIBINT has been found!

================================================================================
                                       INPUT FILE
================================================================================
NAME = water1.inp
|  1> # my first orca computation of water
|  2> ! B3LYP def2-SVP Opt
|  3> *xyz 0 1
|  4> O 0.0 0.0 0.0
|  5> H 0.0 0.8 0.6
|  6> H 0.0 -0.8 0.6
|  7> *
|  8> 
|  9>                          ****END OF INPUT****
================================================================================

                       *****************************
                       * Geometry Optimization Run *
                       *****************************

Geometry optimization settings:
Update method            Update   .... BFGS
Choice of coordinates    CoordSys .... Z-matrix Internals
Initial Hessian          InHess   .... Almoef's Model

Convergence Tolerances:
Energy Change            TolE     ....  5.0000e-06 Eh
Max. Gradient            TolMAXG  ....  3.0000e-04 Eh/bohr
RMS Gradient             TolRMSG  ....  1.0000e-04 Eh/bohr
Max. Displacement        TolMAXD  ....  4.0000e-03 bohr
RMS Displacement         TolRMSD  ....  2.0000e-03 bohr

------------------------------------------------------------------------------
                        ORCA OPTIMIZATION COORDINATE SETUP
------------------------------------------------------------------------------

The optimization will be done in new redundant internal coordinates
Making redundant internal coordinates   ...  (new redundants) done
Evaluating the initial hessian          ...  (Almloef) done
Evaluating the coordinates              ...  done
Calculating the B-matrix                .... done
Calculating the G-matrix                .... done
Diagonalizing the G-matrix              .... done
The first mode is                       ....    0
The number of degrees of freedom        ....    3

    -----------------------------------------------------------------
                    Redundant Internal Coordinates


    -----------------------------------------------------------------
         Definition                    Initial Value    Approx d2E/dq
    -----------------------------------------------------------------
      1. B(H   1,O   0)                  1.0000         0.448900   
      2. B(H   2,O   0)                  1.0000         0.448900   
      3. A(H   1,O   0,H   2)          106.2602         0.306850   
    -----------------------------------------------------------------

Number of atoms                         .... 3
Number of degrees of freedom            .... 3

         *************************************************************
         *                GEOMETRY OPTIMIZATION CYCLE   1            *
         *************************************************************
---------------------------------
CARTESIAN COORDINATES (ANGSTROEM)
---------------------------------
  O      0.000000    0.000000    0.000000
  H      0.000000    0.800000    0.600000
  H      0.000000   -0.800000    0.600000

----------------------------
CARTESIAN COORDINATES (A.U.)
----------------------------
  NO LB      ZA    FRAG     MASS         X           Y           Z
   0 O     8.0000    0    15.999    0.000000    0.000000    0.000000
   1 H     1.0000    0     1.008    0.000000    1.511781    1.133836
   2 H     1.0000    0     1.008    0.000000   -1.511781    1.133836

--------------------------------
INTERNAL COORDINATES (ANGSTROEM)
--------------------------------
 O      0   0   0     0.000000000000     0.00000000     0.00000000
 H      1   0   0     1.000000000000     0.00000000     0.00000000
 H      1   2   0     1.000000000000   106.26020471     0.00000000

---------------------------
INTERNAL COORDINATES (A.U.)
---------------------------
 O      0   0   0     0.000000000000     0.00000000     0.00000000
 H      1   0   0     1.889726133921     0.00000000     0.00000000
 H      1   2   0     1.889726133921   106.26020471     0.00000000

---------------------
BASIS SET INFORMATION
---------------------
There are 2 groups of distinct atoms

 Group   1 Type O   : 7s4p1d contracted to 3s2p1d pattern {511/31/1}
 Group   2 Type H   : 4s1p contracted to 2s1p pattern {31/1}

Atom   0O    basis set group =>   1
Atom   1H    basis set group =>   2
Atom   2H    basis set group =>   2
------------------------------------------------------------------------------
                           ORCA GTO INTEGRAL CALCULATION
------------------------------------------------------------------------------

                         BASIS SET STATISTICS AND STARTUP INFO

 # of primitive gaussian shells          ...   22
 # of primitive gaussian functions       ...   38
 # of contracted shells                  ...   12
 # of contracted basis functions         ...   24
 Highest angular momentum                ...    2
 Maximum contraction depth               ...    5
 Integral package used                   ... LIBINT
 Integral threshhold            Thresh   ...  2.500e-11
 Primitive cut-off              TCut     ...  2.500e-12


------------------------------ INTEGRAL EVALUATION ----------------------------


 * One electron integrals 
 Pre-screening matrix                    ... done
 Shell pair data                         ... done (   0.000 sec)

-------------------------------------------------------------------------------
                                 ORCA SCF
-------------------------------------------------------------------------------

------------
SCF SETTINGS
------------
Hamiltonian:
 Density Functional     Method          .... DFT(GTOs)
 Exchange Functional    Exchange        .... B88
   X-Alpha parameter    XAlpha          ....  0.666667
   Becke's b parameter  XBeta           ....  0.004200
 Correlation Functional Correlation     .... LYP
 LDA part of GGA corr.  LDAOpt          .... VWN-5
 Gradients option       PostSCFGGA      .... off
 Hybrid DFT is turned on
   Fraction HF Exchange ScalHFX         ....  0.200000
   Scaling of DF-GGA-X  ScalDFX         ....  0.720000
   Scaling of DF-GGA-C  ScalDFC         ....  0.810000
   Scaling of DF-LDA-C  ScalLDAC        ....  1.000000
   Perturbative correction              ....  0.000000
   Density functional embedding theory  .... OFF
   NL short-range parameter             ....  4.800000


General Settings:
 Integral files         IntName         .... water1
 Hartree-Fock type      HFTyp           .... RHF
 Total Charge           Charge          ....    0
 Multiplicity           Mult            ....    1
 Number of Electrons    NEL             ....   10
 Basis Dimension        Dim             ....   24
 Nuclear Repulsion      ENuc            ....      8.7975710880 Eh

Convergence Acceleration:
 DIIS                   CNVDIIS         .... on
   Start iteration      DIISMaxIt       ....    12
   Startup error        DIISStart       ....  0.200000
   # of expansion vecs  DIISMaxEq       ....     5
   Bias factor          DIISBfac        ....   1.050
   Max. coefficient     DIISMaxC        ....  10.000
 Newton-Raphson         CNVNR           .... off
 SOSCF                  CNVSOSCF        .... on
   Start iteration      SOSCFMaxIt      ....   150
   Startup grad/error   SOSCFStart      ....  0.003300
 Level Shifting         CNVShift        .... on
   Level shift para.    LevelShift      ....    0.2500
   Turn off err/grad.   ShiftErr        ....    0.0010
 Zerner damping         CNVZerner       .... off
 Static damping         CNVDamp         .... on
   Fraction old density DampFac         ....    0.7000
   Max. Damping (<1)    DampMax         ....    0.9800
   Min. Damping (>=0)   DampMin         ....    0.0000
   Turn off err/grad.   DampErr         ....    0.1000
 Fernandez-Rico         CNVRico         .... off

SCF Procedure:
 Maximum # iterations   MaxIter         ....   125
 SCF integral mode      SCFMode         .... Direct
   Integral package                     .... LIBINT
 Reset frequency        DirectResetFreq ....    20
 Integral Threshold     Thresh          ....  2.500e-11 Eh
 Primitive CutOff       TCut            ....  2.500e-12 Eh

Convergence Tolerance:
 Convergence Check Mode ConvCheckMode   .... Total+1el-Energy
 Convergence forced     ConvForced      .... 0
 Energy Change          TolE            ....  1.000e-08 Eh
 1-El. energy change                    ....  1.000e-05 Eh
 Orbital Gradient       TolG            ....  1.000e-05
 Orbital Rotation angle TolX            ....  1.000e-05
 DIIS Error             TolErr          ....  5.000e-07


Diagonalization of the overlap matrix:
Smallest eigenvalue                        ... 4.132e-02
Time for diagonalization                   ...    0.010 sec
Threshold for overlap eigenvalues          ... 1.000e-08
Number of eigenvalues below threshold      ... 0
Time for construction of square roots      ...    0.003 sec
Total time needed                          ...    0.014 sec

-------------------
DFT GRID GENERATION
-------------------

General Integration Accuracy     IntAcc      ...  4.340
Radial Grid Type                 RadialGrid  ... Gauss-Chebyshev
Angular Grid (max. acc.)         AngularGrid ... Lebedev-110
Angular grid pruning method      GridPruning ... 3 (G Style)
Weight generation scheme         WeightScheme... Becke
Basis function cutoff            BFCut       ...    1.0000e-11
Integration weight cutoff        WCut        ...    1.0000e-14
Grids for H and He will be reduced by one unit

# of grid points (after initial pruning)     ...   3304 (   0.0 sec)
# of grid points (after weights+screening)   ...   3270 (   0.0 sec)
nearest neighbour list constructed           ...    0.0 sec
Grid point re-assignment to atoms done       ...    0.0 sec
Grid point division into batches done        ...    0.0 sec
Reduced shell lists constructed in    0.0 sec

Total number of grid points                  ...     3270
Total number of batches                      ...       52
Average number of points per batch           ...       62
Average number of grid points per atom       ...     1090
Average number of shells per batch           ...    11.19 (93.24%)
Average number of basis functions per batch  ...    22.43 (93.47%)
Average number of large shells per batch     ...    10.83 (96.80%)
Average number of large basis fcns per batch ...    21.85 (97.39%)
Maximum spatial batch extension              ...  21.59, 13.01, 19.31 au
Average spatial batch extension              ...   7.25,  4.64,  5.68 au

Time for grid setup =    0.014 sec

------------------------------
INITIAL GUESS: MODEL POTENTIAL
------------------------------
Loading Hartree-Fock densities                     ... done
Calculating cut-offs                               ... done
Setting up the integral package                    ... done
Initializing the effective Hamiltonian             ... done
Starting the Coulomb interaction                   ... done (   0.0 sec)
Reading the grid                                   ... done
Mapping shells                                     ... done
Starting the XC term evaluation                    ... done (   0.0 sec)
  promolecular density results
     # of electrons  =      9.997384421
     EX              =     -8.765193763
     EC              =     -0.333492530
     EX+EC           =     -9.098686292
Transforming the Hamiltonian                       ... done (   0.0 sec)
Diagonalizing the Hamiltonian                      ... done (   0.0 sec)
Back transforming the eigenvectors                 ... done (   0.0 sec)
Now organizing SCF variables                       ... done
                      ------------------
                      INITIAL GUESS DONE (   0.1 sec)
                      ------------------
--------------
SCF ITERATIONS
--------------
ITER       Energy         Delta-E        Max-DP      RMS-DP      [F,P]     Damp
               ***  Starting incremental Fock matrix formation  ***
  0    -76.2251351324   0.000000000000 0.08801956  0.00929628  0.3019041 0.7000
  1    -76.2714076623  -0.046272529913 0.05052690  0.00525759  0.1266765 0.7000
                               ***Turning on DIIS***
  2    -76.2866750867  -0.015267424329 0.05757969  0.00603150  0.0314915 0.0000
  3    -76.3131567139  -0.026481627220 0.03053228  0.00333588  0.0723963 0.0000
  4    -76.3183819433  -0.005225229469 0.00516771  0.00063507  0.0093574 0.0000
                      *** Initiating the SOSCF procedure ***
                           *** Shutting down DIIS ***
                      *** Re-Reading the Fockian *** 
                      *** Removing any level shift *** 
ITER      Energy       Delta-E        Grad      Rot      Max-DP    RMS-DP
  5    -76.31852012  -0.0001381727  0.000877  0.000877  0.001703  0.000188
               *** Restarting incremental Fock matrix formation ***
  6    -76.31852719  -0.0000070787  0.000401  0.001009  0.001430  0.000131
  7    -76.31852764  -0.0000004424  0.000392  0.000174  0.000458  0.000041
  8    -76.31852806  -0.0000004189  0.000084  0.000137  0.000143  0.000020
  9    -76.31852809  -0.0000000310  0.000008  0.000021  0.000024  0.000003
                 **** Energy Check signals convergence ****
              ***Rediagonalizing the Fockian in SOSCF/NRSCF***

               *****************************************************
               *                     SUCCESS                       *
               *           SCF CONVERGED AFTER  10 CYCLES          *
               *****************************************************

Setting up the final grid:

General Integration Accuracy     IntAcc      ...  4.670
Radial Grid Type                 RadialGrid  ... Gauss-Chebyshev
Angular Grid (max. acc.)         AngularGrid ... Lebedev-302
Angular grid pruning method      GridPruning ... 3 (G Style)
Weight generation scheme         WeightScheme... Becke
Basis function cutoff            BFCut       ...    1.0000e-11
Integration weight cutoff        WCut        ...    1.0000e-14
Grids for H and He will be reduced by one unit

# of grid points (after initial pruning)     ...  13000 (   0.0 sec)
# of grid points (after weights+screening)   ...  12918 (   0.0 sec)
nearest neighbour list constructed           ...    0.0 sec
Grid point re-assignment to atoms done       ...    0.0 sec
Grid point division into batches done        ...    0.1 sec
Reduced shell lists constructed in    0.1 sec

Total number of grid points                  ...    12918
Total number of batches                      ...      204
Average number of points per batch           ...       63
Average number of grid points per atom       ...     4306
Average number of shells per batch           ...    10.32 (85.98%)
Average number of basis functions per batch  ...    20.47 (85.30%)
Average number of large shells per batch     ...     9.66 (93.62%)
Average number of large basis fcns per batch ...    19.22 (93.88%)
Maximum spatial batch extension              ...  21.92, 16.88, 16.88 au
Average spatial batch extension              ...   3.62,  2.96,  3.46 au

Final grid set up in    0.1 sec
Final integration                            ... done (   0.1 sec)
Change in XC energy                          ...    -0.000289637
Integrated number of electrons               ...     9.999969251
Previous integrated no of electrons          ...     9.998240896

----------------
TOTAL SCF ENERGY
----------------

Total Energy       :          -76.31881772 Eh           -2076.74061 eV

Components:
Nuclear Repulsion  :            8.79757109 Eh             239.39408 eV
Electronic Energy  :          -85.11638881 Eh           -2316.13469 eV
One Electron Energy:         -122.41617408 Eh           -3331.11345 eV
Two Electron Energy:           37.29978527 Eh            1014.97876 eV

Virial components:
Potential Energy   :         -152.05142851 Eh           -4137.52972 eV
Kinetic Energy     :           75.73261078 Eh            2060.78911 eV
Virial Ratio       :            2.00774048


DFT components:
N(Alpha)           :        4.999984625714 electrons
N(Beta)            :        4.999984625714 electrons
N(Total)           :        9.999969251427 electrons
E(X)               :       -7.099707089482 Eh       
E(C)               :       -0.400997147293 Eh       
E(XC)              :       -7.500704236775 Eh       
DFET-embed. en.    :        0.000000000000 Eh       

---------------
SCF CONVERGENCE
---------------

  Last Energy change         ...   -6.2680e-10  Tolerance :   1.0000e-08
  Last MAX-Density change    ...    1.4960e-06  Tolerance :   1.0000e-07
  Last RMS-Density change    ...    1.5652e-07  Tolerance :   5.0000e-09
  Last Orbital Gradient      ...    1.6353e-06  Tolerance :   1.0000e-05
  Last Orbital Rotation      ...    1.0548e-06  Tolerance :   1.0000e-05

             **** THE GBW FILE WAS UPDATED (water1.gbw) ****
             **** DENSITY FILE WAS UPDATED (water1.scfp.tmp) ****
             **** ENERGY FILE WAS UPDATED (water1.en.tmp) ****
----------------
ORBITAL ENERGIES
----------------

  NO   OCC          E(Eh)            E(eV) 
   0   2.0000     -19.118763      -520.2480 
   1   2.0000      -0.960004       -26.1230 
   2   2.0000      -0.501227       -13.6391 
   3   2.0000      -0.356066        -9.6890 
   4   2.0000      -0.284379        -7.7384 
   5   0.0000       0.041007         1.1159 
   6   0.0000       0.117455         3.1961 
   7   0.0000       0.547531        14.8991 
   8   0.0000       0.584886        15.9156 
   9   0.0000       0.918840        25.0029 
  10   0.0000       0.923924        25.1413 
  11   0.0000       1.008907        27.4538 
  12   0.0000       1.092641        29.7323 
  13   0.0000       1.336778        36.3756 
  14   0.0000       1.446589        39.3637 
  15   0.0000       1.557911        42.3929 
  16   0.0000       1.737399        47.2770 
  17   0.0000       2.134720        58.0887 
  18   0.0000       2.183158        59.4068 
  19   0.0000       2.920057        79.4588 
  20   0.0000       2.978208        81.0412 
  21   0.0000       3.126436        85.0746 
  22   0.0000       3.474096        94.5350 
  23   0.0000       3.770711       102.6063 

                    ********************************
                    * MULLIKEN POPULATION ANALYSIS *
                    ********************************

-----------------------
MULLIKEN ATOMIC CHARGES
-----------------------
   0 O :   -0.330420
   1 H :    0.165210
   2 H :    0.165210
Sum of atomic charges:   -0.0000000

--------------------------------
MULLIKEN REDUCED ORBITAL CHARGES
--------------------------------
  0 O s       :     3.716197  s :     3.716197
      pz      :     1.508681  p :     4.604757
      px      :     1.963340
      py      :     1.132736
      dz2     :     0.001245  d :     0.009467
      dxz     :     0.001080
      dyz     :     0.006420
      dx2y2   :     0.000722
      dxy     :     0.000000
  1 H s       :     0.769331  s :     0.769331
      pz      :     0.020127  p :     0.065459
      px      :     0.017790
      py      :     0.027541
  2 H s       :     0.769331  s :     0.769331
      pz      :     0.020127  p :     0.065459
      px      :     0.017790
      py      :     0.027541


                     *******************************
                     * LOEWDIN POPULATION ANALYSIS *
                     *******************************

----------------------
LOEWDIN ATOMIC CHARGES
----------------------
   0 O :   -0.183432
   1 H :    0.091716
   2 H :    0.091716

-------------------------------
LOEWDIN REDUCED ORBITAL CHARGES
-------------------------------
  0 O s       :     3.474568  s :     3.474568
      pz      :     1.570705  p :     4.691472
      px      :     1.905802
      py      :     1.214964
      dz2     :     0.000744  d :     0.017392
      dxz     :     0.000398
      dyz     :     0.013326
      dx2y2   :     0.002925
      dxy     :    -0.000000
  1 H s       :     0.748212  s :     0.748212
      pz      :     0.054737  p :     0.160072
      px      :     0.046900
      py      :     0.058436
  2 H s       :     0.748212  s :     0.748212
      pz      :     0.054737  p :     0.160072
      px      :     0.046900
      py      :     0.058436


                      *****************************
                      * MAYER POPULATION ANALYSIS *
                      *****************************

  NA   - Mulliken gross atomic population
  ZA   - Total nuclear charge
  QA   - Mulliken gross atomic charge
  VA   - Mayer's total valence
  BVA  - Mayer's bonded valence
  FA   - Mayer's free valence

  ATOM       NA         ZA         QA         VA         BVA        FA
  0 O      8.3304     8.0000    -0.3304     1.9902     1.9902    -0.0000
  1 H      0.8348     1.0000     0.1652     1.0011     1.0011    -0.0000
  2 H      0.8348     1.0000     0.1652     1.0011     1.0011    -0.0000

  Mayer bond orders larger than 0.1
B(  0-O ,  1-H ) :   0.9951 B(  0-O ,  2-H ) :   0.9951 

-------
TIMINGS
-------

Total SCF time: 0 days 0 hours 0 min 3 sec 

Total time                  ....       3.243 sec
Sum of individual times     ....       2.972 sec  ( 91.6%)

Fock matrix formation       ....       2.693 sec  ( 83.0%)
  XC integration            ....       0.247 sec  (  9.2% of F)
    Basis function eval.    ....       0.070 sec  ( 28.5% of XC)
    Density eval.           ....       0.045 sec  ( 18.1% of XC)
    XC-Functional eval.     ....       0.063 sec  ( 25.6% of XC)
    XC-Potential eval.      ....       0.028 sec  ( 11.3% of XC)
Diagonalization             ....       0.001 sec  (  0.0%)
Density matrix formation    ....       0.000 sec  (  0.0%)
Population analysis         ....       0.001 sec  (  0.0%)
Initial guess               ....       0.124 sec  (  3.8%)
Orbital Transformation      ....       0.000 sec  (  0.0%)
Orbital Orthonormalization  ....       0.000 sec  (  0.0%)
DIIS solution               ....       0.008 sec  (  0.2%)
SOSCF solution              ....       0.006 sec  (  0.2%)
Grid generation             ....       0.139 sec  (  4.3%)

-------------------------   --------------------
FINAL SINGLE POINT ENERGY       -76.318817724232
-------------------------   --------------------

------------------------------------------------------------------------------
                         ORCA SCF GRADIENT CALCULATION
------------------------------------------------------------------------------

Gradient of the Kohn-Sham DFT energy:
Kohn-Sham wavefunction type      ... RKS
Hartree-Fock exchange scaling    ...    0.200
Number of operators              ...    1
Number of atoms                  ...    3
Basis set dimensions             ...   24
Integral neglect threshold       ... 2.5e-11
Integral primitive cutoff        ... 2.5e-12

Nuclear repulsion gradient       ... done
One Electron Gradient            ... done
Pre-screening matrix             ... done
Starting the two electron gradient:
Two electron gradient done
Exchange-correlation gradient    ... done

------------------
CARTESIAN GRADIENT
------------------

   1   O   :    0.000000000   -0.000000000   -0.026608085
   2   H   :    0.000000000    0.028325268    0.013304043
   3   H   :   -0.000000000   -0.028325267    0.013304043

Difference to translation invariance:
           :   -0.0000000000    0.0000000000    0.0000000000

Norm of the cartesian gradient     ...    0.0516393926
RMS gradient                       ...    0.0172131309
MAX gradient                       ...    0.0283252675

-------
TIMINGS
-------

Total SCF gradient time            ...        0.438 sec

One electron gradient       ....       0.003 sec  (  0.6%)
Prescreening matrices       ....       0.002 sec  (  0.5%)
Two electron gradient       ....       0.049 sec  ( 11.3%)
XC gradient                 ....       0.199 sec  ( 45.6%)
------------------------------------------------------------------------------
                         ORCA GEOMETRY RELAXATION STEP
------------------------------------------------------------------------------

Reading the OPT-File                    .... done
Getting information on internals        .... done
Copying old internal coords+grads       .... done
Making the new internal coordinates     .... (new redundants).... done
Validating the new internal coordinates .... (new redundants).... done
Calculating the B-matrix                .... done
Calculating the G,G- and P matrices     .... done
Transforming gradient to internals      .... done
Projecting the internal gradient        .... done
Number of atoms                         ....   3
Number of internal coordinates          ....   3
Current Energy                          ....   -76.318817724 Eh
Current gradient norm                   ....     0.051639393 Eh/bohr
Maximum allowed component of the step   ....  0.300
Current trust radius                    ....  0.300
Evaluating the initial hessian          ....  (Almloef) done
Projecting the Hessian                  .... done
Forming the augmented Hessian           .... done
Diagonalizing the augmented Hessian     .... done
Last element of RFO vector              ....  0.994733698
Lowest eigenvalues of augmented Hessian:
 -0.004603579  0.307299432  0.448899677
Length of the computed step             ....  0.103035886
The final length of the internal step   ....  0.103035886
Converting the step to cartesian space:
 Initial RMS(Int)=    0.0594877968
Transforming coordinates:
 Iter   0:  RMS(Cart)=    0.0359159585 RMS(Int)=    0.0595261797
 Iter   1:  RMS(Cart)=    0.0004281716 RMS(Int)=    0.0009056286
 Iter   2:  RMS(Cart)=    0.0000136063 RMS(Int)=    0.0000344164
 Iter   3:  RMS(Cart)=    0.0000003555 RMS(Int)=    0.0000009301
 Iter   4:  RMS(Cart)=    0.0000000081 RMS(Int)=    0.0000000213
done
Storing new coordinates                 .... done

                                .--------------------.
          ----------------------|Geometry convergence|-------------------------
          Item                value                   Tolerance       Converged
          ---------------------------------------------------------------------
          RMS gradient        0.0259616664            0.0001000000      NO
          MAX gradient        0.0306426397            0.0003000000      NO
          RMS step            0.0594877968            0.0020000000      NO
          MAX step            0.0675687313            0.0040000000      NO
          ........................................................
          Max(Bonds)      0.0358      Max(Angles)    2.21
          Max(Dihed)        0.00      Max(Improp)    0.00
          ---------------------------------------------------------------------

The optimization has not yet converged - more geometry cycles are needed


    ---------------------------------------------------------------------------
                         Redundant Internal Coordinates
                            (Angstroem and degrees)

        Definition                    Value    dE/dq     Step     New-Value
    ----------------------------------------------------------------------------
     1. B(H   1,O   0)                1.0000  0.030643 -0.0358    0.9642   
     2. B(H   2,O   0)                1.0000  0.030643 -0.0358    0.9642   
     3. A(H   1,O   0,H   2)          106.26  0.012003   -2.21    104.05   
    ----------------------------------------------------------------------------

         *************************************************************
         *                GEOMETRY OPTIMIZATION CYCLE   2            *
         *************************************************************
---------------------------------
CARTESIAN COORDINATES (ANGSTROEM)
---------------------------------
  O      0.000000    0.000000    0.004465
  H      0.000000    0.760104    0.597768
  H      0.000000   -0.760104    0.597768

----------------------------
CARTESIAN COORDINATES (A.U.)
----------------------------
  NO LB      ZA    FRAG     MASS         X           Y           Z
   0 O     8.0000    0    15.999    0.000000    0.000000    0.008437
   1 H     1.0000    0     1.008    0.000000    1.436389    1.129617
   2 H     1.0000    0     1.008    0.000000   -1.436389    1.129617

--------------------------------
INTERNAL COORDINATES (ANGSTROEM)
--------------------------------
 O      0   0   0     0.000000000000     0.00000000     0.00000000
 H      1   0   0     0.964244167616     0.00000000     0.00000000
 H      1   2   0     0.964244167755   104.05202873     0.00000000

---------------------------
INTERNAL COORDINATES (A.U.)
---------------------------
 O      0   0   0     0.000000000000     0.00000000     0.00000000
 H      1   0   0     1.822157403025     0.00000000     0.00000000
 H      1   2   0     1.822157403289   104.05202873     0.00000000


Diagonalization of the overlap matrix:
Smallest eigenvalue                        ... 3.796e-02
Time for diagonalization                   ...    0.023 sec
Threshold for overlap eigenvalues          ... 1.000e-08
Number of eigenvalues below threshold      ... 0
Time for construction of square roots      ...    0.005 sec
Total time needed                          ...    0.028 sec

-------------------
DFT GRID GENERATION
-------------------

General Integration Accuracy     IntAcc      ...  4.340
Radial Grid Type                 RadialGrid  ... Gauss-Chebyshev
Angular Grid (max. acc.)         AngularGrid ... Lebedev-110
Angular grid pruning method      GridPruning ... 3 (G Style)
Weight generation scheme         WeightScheme... Becke
Basis function cutoff            BFCut       ...    1.0000e-11
Integration weight cutoff        WCut        ...    1.0000e-14
Grids for H and He will be reduced by one unit

# of grid points (after initial pruning)     ...   3304 (   0.0 sec)
# of grid points (after weights+screening)   ...   3256 (   0.0 sec)
nearest neighbour list constructed           ...    0.0 sec
Grid point re-assignment to atoms done       ...    0.0 sec
Grid point division into batches done        ...    0.0 sec
Reduced shell lists constructed in    0.0 sec

Total number of grid points                  ...     3256
Total number of batches                      ...       52
Average number of points per batch           ...       62
Average number of grid points per atom       ...     1085
Average number of shells per batch           ...    11.36 (94.65%)
Average number of basis functions per batch  ...    22.83 (95.13%)
Average number of large shells per batch     ...    10.92 (96.18%)
Average number of large basis fcns per batch ...    22.09 (96.78%)
Maximum spatial batch extension              ...  25.65, 13.08, 18.77 au
Average spatial batch extension              ...   6.07,  4.28,  5.40 au

Time for grid setup =    0.017 sec

--------------
SCF ITERATIONS
--------------
ITER       Energy         Delta-E        Max-DP      RMS-DP      [F,P]     Damp
               ***  Starting incremental Fock matrix formation  ***
  0    -76.3199217984   0.000000000000 0.00513846  0.00067054  0.0128765 0.7000
                      *** Initiating the SOSCF procedure ***
                      *** Re-Reading the Fockian *** 
                      *** Removing any level shift *** 
ITER      Energy       Delta-E        Grad      Rot      Max-DP    RMS-DP
  1    -76.32014522  -0.0002234169  0.001936  0.001936  0.014838  0.001814
               *** Restarting incremental Fock matrix formation ***
  2    -76.32062914  -0.0004839267  0.003023  0.002493  0.006124  0.000550
  3    -76.32062131   0.0000078306  0.003455  0.001422  0.003108  0.000325
  4    -76.32065539  -0.0000340775  0.000211  0.000165  0.000244  0.000026
  5    -76.32065554  -0.0000001547  0.000089  0.000039  0.000054  0.000007
                  ***Gradient check signals convergence***
              ***Rediagonalizing the Fockian in SOSCF/NRSCF***

               *****************************************************
               *                     SUCCESS                       *
               *           SCF CONVERGED AFTER   6 CYCLES          *
               *****************************************************

Setting up the final grid:

General Integration Accuracy     IntAcc      ...  4.670
Radial Grid Type                 RadialGrid  ... Gauss-Chebyshev
Angular Grid (max. acc.)         AngularGrid ... Lebedev-302
Angular grid pruning method      GridPruning ... 3 (G Style)
Weight generation scheme         WeightScheme... Becke
Basis function cutoff            BFCut       ...    1.0000e-11
Integration weight cutoff        WCut        ...    1.0000e-14
Grids for H and He will be reduced by one unit

# of grid points (after initial pruning)     ...  13000 (   0.0 sec)
# of grid points (after weights+screening)   ...  12900 (   0.0 sec)
nearest neighbour list constructed           ...    0.0 sec
Grid point re-assignment to atoms done       ...    0.0 sec
Grid point division into batches done        ...    0.1 sec
Reduced shell lists constructed in    0.1 sec

Total number of grid points                  ...    12900
Total number of batches                      ...      204
Average number of points per batch           ...       63
Average number of grid points per atom       ...     4300
Average number of shells per batch           ...    10.33 (86.10%)
Average number of basis functions per batch  ...    20.53 (85.53%)
Average number of large shells per batch     ...     9.70 (93.91%)
Average number of large basis fcns per batch ...    19.24 (93.75%)
Maximum spatial batch extension              ...  21.92, 16.88, 16.88 au
Average spatial batch extension              ...   3.59,  3.21,  3.52 au

Final grid set up in    0.1 sec
Final integration                            ... done (   0.1 sec)
Change in XC energy                          ...    -0.000468570
Integrated number of electrons               ...     9.999975027
Previous integrated no of electrons          ...     9.997601804
Total Energy       :          -76.32112414 Eh           -2076.80337 eV
  Last Energy change         ...   -2.7404e-08  Tolerance :   1.0000e-08
  Last MAX-Density change    ...    3.2804e-06  Tolerance :   1.0000e-07
             **** THE GBW FILE WAS UPDATED (water1.gbw) ****
             **** DENSITY FILE WAS UPDATED (water1.scfp.tmp) ****
             **** ENERGY FILE WAS UPDATED (water1.en.tmp) ****
Total SCF time: 0 days 0 hours 0 min 2 sec 

-------------------------   --------------------
FINAL SINGLE POINT ENERGY       -76.321124140992
-------------------------   --------------------

------------------------------------------------------------------------------
                         ORCA SCF GRADIENT CALCULATION
------------------------------------------------------------------------------

Gradient of the Kohn-Sham DFT energy:
Kohn-Sham wavefunction type      ... RKS
Hartree-Fock exchange scaling    ...    0.200
Number of operators              ...    1
Number of atoms                  ...    3
Basis set dimensions             ...   24
Integral neglect threshold       ... 2.5e-11
Integral primitive cutoff        ... 2.5e-12

Nuclear repulsion gradient       ... done
One Electron Gradient            ... done
Pre-screening matrix             ... done
Starting the two electron gradient:
Two electron gradient done
Exchange-correlation gradient    ... done

------------------
CARTESIAN GRADIENT
------------------

   1   O   :    0.000000000    0.000000000    0.004581605
   2   H   :    0.000000000   -0.000923989   -0.002290802
   3   H   :   -0.000000000    0.000923989   -0.002290802

Difference to translation invariance:
           :   -0.0000000000   -0.0000000000    0.0000000000

Norm of the cartesian gradient     ...    0.0057614377
RMS gradient                       ...    0.0019204792
MAX gradient                       ...    0.0045816048

-------
TIMINGS
-------

Total SCF gradient time            ...        0.411 sec

One electron gradient       ....       0.002 sec  (  0.5%)
Prescreening matrices       ....       0.002 sec  (  0.6%)
Two electron gradient       ....       0.029 sec  (  7.0%)
XC gradient                 ....       0.171 sec  ( 41.5%)
------------------------------------------------------------------------------
                         ORCA GEOMETRY RELAXATION STEP
------------------------------------------------------------------------------

Reading the OPT-File                    .... done
Getting information on internals        .... done
Copying old internal coords+grads       .... done
Making the new internal coordinates     .... (new redundants).... done
Validating the new internal coordinates .... (new redundants).... done
Calculating the B-matrix                .... done
Calculating the G,G- and P matrices     .... done
Transforming gradient to internals      .... done
Projecting the internal gradient        .... done
Number of atoms                         ....   3
Number of internal coordinates          ....   3
Current Energy                          ....   -76.321124141 Eh
Current gradient norm                   ....     0.005761438 Eh/bohr
Maximum allowed component of the step   ....  0.300
Current trust radius                    ....  0.300
Updating the Hessian (BFGS)             .... done
Forming the augmented Hessian           .... done
Diagonalizing the augmented Hessian     .... done
Last element of RFO vector              ....  0.999956225
Lowest eigenvalues of augmented Hessian:
 -0.000034197  0.294416249  0.448899677
Length of the computed step             ....  0.009357089
The final length of the internal step   ....  0.009357089
Converting the step to cartesian space:
 Initial RMS(Int)=    0.0054023180
Transforming coordinates:
 Iter   0:  RMS(Cart)=    0.0021517173 RMS(Int)=    0.0054010567
 Iter   1:  RMS(Cart)=    0.0000089418 RMS(Int)=    0.0000136939
 Iter   2:  RMS(Cart)=    0.0000000211 RMS(Int)=    0.0000000453
done
Storing new coordinates                 .... done

                                .--------------------.
          ----------------------|Geometry convergence|-------------------------
          Item                value                   Tolerance       Converged
          ---------------------------------------------------------------------
          Energy change      -0.0023064168            0.0000050000      NO
          RMS gradient        0.0021774760            0.0001000000      NO
          MAX gradient        0.0022545251            0.0003000000      NO
          RMS step            0.0054023180            0.0020000000      NO
          MAX step            0.0072730655            0.0040000000      NO
          ........................................................
          Max(Bonds)      0.0022      Max(Angles)    0.42
          Max(Dihed)        0.00      Max(Improp)    0.00
          ---------------------------------------------------------------------

The optimization has not yet converged - more geometry cycles are needed


    ---------------------------------------------------------------------------
                         Redundant Internal Coordinates
                            (Angstroem and degrees)

        Definition                    Value    dE/dq     Step     New-Value
    ----------------------------------------------------------------------------
     1. B(H   1,O   0)                0.9642 -0.002138  0.0022    0.9664   
     2. B(H   2,O   0)                0.9642 -0.002138  0.0022    0.9664   
     3. A(H   1,O   0,H   2)          104.05  0.002255   -0.42    103.64   
    ----------------------------------------------------------------------------

         *************************************************************
         *                GEOMETRY OPTIMIZATION CYCLE   3            *
         *************************************************************
---------------------------------
CARTESIAN COORDINATES (ANGSTROEM)
---------------------------------
  O      0.000000    0.000000    0.001717
  H      0.000000    0.759673    0.599142
  H      0.000000   -0.759673    0.599142

----------------------------
CARTESIAN COORDINATES (A.U.)
----------------------------
  NO LB      ZA    FRAG     MASS         X           Y           Z
   0 O     8.0000    0    15.999    0.000000    0.000000    0.003244
   1 H     1.0000    0     1.008    0.000000    1.435574    1.132214
   2 H     1.0000    0     1.008    0.000000   -1.435574    1.132214

--------------------------------
INTERNAL COORDINATES (ANGSTROEM)
--------------------------------
 O      0   0   0     0.000000000000     0.00000000     0.00000000
 H      1   0   0     0.966447021066     0.00000000     0.00000000
 H      1   2   0     0.966447021168   103.63531276     0.00000000

---------------------------
INTERNAL COORDINATES (A.U.)
---------------------------
 O      0   0   0     0.000000000000     0.00000000     0.00000000
 H      1   0   0     1.826320192759     0.00000000     0.00000000
 H      1   2   0     1.826320192951   103.63531276     0.00000000


Diagonalization of the overlap matrix:
Smallest eigenvalue                        ... 3.804e-02
Time for diagonalization                   ...    0.000 sec
Threshold for overlap eigenvalues          ... 1.000e-08
Number of eigenvalues below threshold      ... 0
Time for construction of square roots      ...    0.000 sec
Total time needed                          ...    0.000 sec

-------------------
DFT GRID GENERATION
-------------------

General Integration Accuracy     IntAcc      ...  4.340
Radial Grid Type                 RadialGrid  ... Gauss-Chebyshev
Angular Grid (max. acc.)         AngularGrid ... Lebedev-110
Angular grid pruning method      GridPruning ... 3 (G Style)
Weight generation scheme         WeightScheme... Becke
Basis function cutoff            BFCut       ...    1.0000e-11
Integration weight cutoff        WCut        ...    1.0000e-14
Grids for H and He will be reduced by one unit

# of grid points (after initial pruning)     ...   3304 (   0.0 sec)
# of grid points (after weights+screening)   ...   3254 (   0.0 sec)
nearest neighbour list constructed           ...    0.0 sec
Grid point re-assignment to atoms done       ...    0.0 sec
Grid point division into batches done        ...    0.0 sec
Reduced shell lists constructed in    0.0 sec

Total number of grid points                  ...     3254
Total number of batches                      ...       52
Average number of points per batch           ...       62
Average number of grid points per atom       ...     1085
Average number of shells per batch           ...    11.36 (94.65%)
Average number of basis functions per batch  ...    22.83 (95.13%)
Average number of large shells per batch     ...    10.89 (95.85%)
Average number of large basis fcns per batch ...    22.06 (96.61%)
Maximum spatial batch extension              ...  25.65, 13.08, 18.77 au
Average spatial batch extension              ...   6.07,  4.26,  5.31 au

Time for grid setup =    0.018 sec

--------------
SCF ITERATIONS
--------------
ITER       Energy         Delta-E        Max-DP      RMS-DP      [F,P]     Damp
               ***  Starting incremental Fock matrix formation  ***
                      *** Initiating the SOSCF procedure ***
                      *** Re-Reading the Fockian *** 
                      *** Removing any level shift *** 
ITER      Energy       Delta-E        Grad      Rot      Max-DP    RMS-DP
  0    -76.32065614 -76.3206561404  0.001067  0.001067  0.001912  0.000200
               *** Restarting incremental Fock matrix formation ***
  1    -76.32066161  -0.0000054718  0.000324  0.000263  0.000753  0.000073
  2    -76.32066187  -0.0000002566  0.000315  0.000229  0.000421  0.000040
  3    -76.32066215  -0.0000002821  0.000040  0.000083  0.000130  0.000013
  4    -76.32066216  -0.0000000134  0.000008  0.000008  0.000012  0.000002
                 **** Energy Check signals convergence ****
              ***Rediagonalizing the Fockian in SOSCF/NRSCF***

               *****************************************************
               *                     SUCCESS                       *
               *           SCF CONVERGED AFTER   5 CYCLES          *
               *****************************************************

Setting up the final grid:

General Integration Accuracy     IntAcc      ...  4.670
Radial Grid Type                 RadialGrid  ... Gauss-Chebyshev
Angular Grid (max. acc.)         AngularGrid ... Lebedev-302
Angular grid pruning method      GridPruning ... 3 (G Style)
Weight generation scheme         WeightScheme... Becke
Basis function cutoff            BFCut       ...    1.0000e-11
Integration weight cutoff        WCut        ...    1.0000e-14
Grids for H and He will be reduced by one unit

# of grid points (after initial pruning)     ...  13000 (   0.0 sec)
# of grid points (after weights+screening)   ...  12898 (   0.0 sec)
nearest neighbour list constructed           ...    0.0 sec
Grid point re-assignment to atoms done       ...    0.0 sec
Grid point division into batches done        ...    0.1 sec
Reduced shell lists constructed in    0.1 sec

Total number of grid points                  ...    12898
Total number of batches                      ...      204
Average number of points per batch           ...       63
Average number of grid points per atom       ...     4299
Average number of shells per batch           ...    10.31 (85.93%)
Average number of basis functions per batch  ...    20.50 (85.41%)
Average number of large shells per batch     ...     9.67 (93.76%)
Average number of large basis fcns per batch ...    19.19 (93.62%)
Maximum spatial batch extension              ...  21.92, 16.88, 16.88 au
Average spatial batch extension              ...   3.55,  3.23,  3.54 au

Final grid set up in    0.1 sec
Final integration                            ... done (   0.1 sec)
Change in XC energy                          ...    -0.000485890
Integrated number of electrons               ...     9.999974462
Previous integrated no of electrons          ...     9.997538313
Total Energy       :          -76.32114805 Eh           -2076.80402 eV
  Last Energy change         ...   -3.4659e-10  Tolerance :   1.0000e-08
  Last MAX-Density change    ...    1.3298e-06  Tolerance :   1.0000e-07
             **** THE GBW FILE WAS UPDATED (water1.gbw) ****
             **** DENSITY FILE WAS UPDATED (water1.scfp.tmp) ****
             **** ENERGY FILE WAS UPDATED (water1.en.tmp) ****
Total SCF time: 0 days 0 hours 0 min 1 sec 

-------------------------   --------------------
FINAL SINGLE POINT ENERGY       -76.321148054191
-------------------------   --------------------

------------------------------------------------------------------------------
                         ORCA SCF GRADIENT CALCULATION
------------------------------------------------------------------------------

Gradient of the Kohn-Sham DFT energy:
Kohn-Sham wavefunction type      ... RKS
Hartree-Fock exchange scaling    ...    0.200
Number of operators              ...    1
Number of atoms                  ...    3
Basis set dimensions             ...   24
Integral neglect threshold       ... 2.5e-11
Integral primitive cutoff        ... 2.5e-12

Nuclear repulsion gradient       ... done
One Electron Gradient            ... done
Pre-screening matrix             ... done
Starting the two electron gradient:
Two electron gradient done
Exchange-correlation gradient    ... done

------------------
CARTESIAN GRADIENT
------------------

   1   O   :    0.000000000    0.000000000    0.001364343
   2   H   :   -0.000000000    0.000332419   -0.000682172
   3   H   :   -0.000000000   -0.000332419   -0.000682171

Difference to translation invariance:
           :   -0.0000000000   -0.0000000000    0.0000000000

Norm of the cartesian gradient     ...    0.0017358435
RMS gradient                       ...    0.0005786145
MAX gradient                       ...    0.0013643432

-------
TIMINGS
-------

Total SCF gradient time            ...        0.426 sec

One electron gradient       ....       0.005 sec  (  1.1%)
Prescreening matrices       ....       0.002 sec  (  0.5%)
Two electron gradient       ....       0.024 sec  (  5.5%)
XC gradient                 ....       0.191 sec  ( 44.8%)
------------------------------------------------------------------------------
                         ORCA GEOMETRY RELAXATION STEP
------------------------------------------------------------------------------

Reading the OPT-File                    .... done
Getting information on internals        .... done
Copying old internal coords+grads       .... done
Making the new internal coordinates     .... (new redundants).... done
Validating the new internal coordinates .... (new redundants).... done
Calculating the B-matrix                .... done
Calculating the G,G- and P matrices     .... done
Transforming gradient to internals      .... done
Projecting the internal gradient        .... done
Number of atoms                         ....   3
Number of internal coordinates          ....   3
Current Energy                          ....   -76.321148054 Eh
Current gradient norm                   ....     0.001735844 Eh/bohr
Maximum allowed component of the step   ....  0.300
Current trust radius                    ....  0.300
Updating the Hessian (BFGS)             .... done
Forming the augmented Hessian           .... done
Diagonalizing the augmented Hessian     .... done
Last element of RFO vector              ....  0.999967058
Lowest eigenvalues of augmented Hessian:
 -0.000011148  0.169187336  0.448899677
Length of the computed step             ....  0.008117080
The final length of the internal step   ....  0.008117080
Converting the step to cartesian space:
 Initial RMS(Int)=    0.0046863982
Transforming coordinates:
 Iter   0:  RMS(Cart)=    0.0024627517 RMS(Int)=    0.0046859727
 Iter   1:  RMS(Cart)=    0.0000067715 RMS(Int)=    0.0000121641
 Iter   2:  RMS(Cart)=    0.0000000179 RMS(Int)=    0.0000000378
done
Storing new coordinates                 .... done

                                .--------------------.
          ----------------------|Geometry convergence|-------------------------
          Item                value                   Tolerance       Converged
          ---------------------------------------------------------------------
          Energy change      -0.0000239132            0.0000050000      NO
          RMS gradient        0.0007929675            0.0001000000      NO
          MAX gradient        0.0013545985            0.0003000000      NO
          RMS step            0.0046863982            0.0020000000      NO
          MAX step            0.0079903240            0.0040000000      NO
          ........................................................
          Max(Bonds)      0.0005      Max(Angles)    0.46
          Max(Dihed)        0.00      Max(Improp)    0.00
          ---------------------------------------------------------------------

The optimization has not yet converged - more geometry cycles are needed


    ---------------------------------------------------------------------------
                         Redundant Internal Coordinates
                            (Angstroem and degrees)

        Definition                    Value    dE/dq     Step     New-Value
    ----------------------------------------------------------------------------
     1. B(H   1,O   0)                0.9664 -0.000160  0.0005    0.9670   
     2. B(H   2,O   0)                0.9664 -0.000160  0.0005    0.9670   
     3. A(H   1,O   0,H   2)          103.64  0.001355   -0.46    103.18   
    ----------------------------------------------------------------------------

         *************************************************************
         *                GEOMETRY OPTIMIZATION CYCLE   4            *
         *************************************************************
---------------------------------
CARTESIAN COORDINATES (ANGSTROEM)
---------------------------------
  O      0.000000   -0.000000   -0.000525
  H      0.000000    0.757699    0.600262
  H      0.000000   -0.757699    0.600262

----------------------------
CARTESIAN COORDINATES (A.U.)
----------------------------
  NO LB      ZA    FRAG     MASS         X           Y           Z
   0 O     8.0000    0    15.999    0.000000   -0.000000   -0.000992
   1 H     1.0000    0     1.008    0.000000    1.431844    1.134332
   2 H     1.0000    0     1.008    0.000000   -1.431844    1.134332

--------------------------------
INTERNAL COORDINATES (ANGSTROEM)
--------------------------------
 O      0   0   0     0.000000000000     0.00000000     0.00000000
 H      1   0   0     0.966981687247     0.00000000     0.00000000
 H      1   2   0     0.966981687115   103.17750091     0.00000000

---------------------------
INTERNAL COORDINATES (A.U.)
---------------------------
 O      0   0   0     0.000000000000     0.00000000     0.00000000
 H      1   0   0     1.827330565413     0.00000000     0.00000000
 H      1   2   0     1.827330565164   103.17750091     0.00000000


Diagonalization of the overlap matrix:
Smallest eigenvalue                        ... 3.798e-02
Time for diagonalization                   ...    0.000 sec
Threshold for overlap eigenvalues          ... 1.000e-08
Number of eigenvalues below threshold      ... 0
Time for construction of square roots      ...    0.000 sec
Total time needed                          ...    0.001 sec

-------------------
DFT GRID GENERATION
-------------------

General Integration Accuracy     IntAcc      ...  4.340
Radial Grid Type                 RadialGrid  ... Gauss-Chebyshev
Angular Grid (max. acc.)         AngularGrid ... Lebedev-110
Angular grid pruning method      GridPruning ... 3 (G Style)
Weight generation scheme         WeightScheme... Becke
Basis function cutoff            BFCut       ...    1.0000e-11
Integration weight cutoff        WCut        ...    1.0000e-14
Grids for H and He will be reduced by one unit

# of grid points (after initial pruning)     ...   3304 (   0.0 sec)
# of grid points (after weights+screening)   ...   3252 (   0.0 sec)
nearest neighbour list constructed           ...    0.0 sec
Grid point re-assignment to atoms done       ...    0.0 sec
Grid point division into batches done        ...    0.0 sec
Reduced shell lists constructed in    0.0 sec

Total number of grid points                  ...     3252
Total number of batches                      ...       52
Average number of points per batch           ...       62
Average number of grid points per atom       ...     1084
Average number of shells per batch           ...    11.34 (94.50%)
Average number of basis functions per batch  ...    22.74 (94.73%)
Average number of large shells per batch     ...    10.89 (96.01%)
Average number of large basis fcns per batch ...    22.06 (97.01%)
Maximum spatial batch extension              ...  25.65, 13.09, 18.77 au
Average spatial batch extension              ...   6.14,  4.35,  4.99 au

Time for grid setup =    0.020 sec

--------------
SCF ITERATIONS
--------------
ITER       Energy         Delta-E        Max-DP      RMS-DP      [F,P]     Damp
               ***  Starting incremental Fock matrix formation  ***
                      *** Initiating the SOSCF procedure ***
                      *** Re-Reading the Fockian *** 
                      *** Removing any level shift *** 
ITER      Energy       Delta-E        Grad      Rot      Max-DP    RMS-DP
  0    -76.32064488 -76.3206448839  0.000657  0.000657  0.001527  0.000169
               *** Restarting incremental Fock matrix formation ***
  1    -76.32064840  -0.0000035200  0.000194  0.000151  0.000383  0.000046
  2    -76.32064858  -0.0000001734  0.000107  0.000123  0.000250  0.000023
  3    -76.32064859  -0.0000000160  0.000059  0.000064  0.000131  0.000013
                  ***Gradient check signals convergence***
              ***Rediagonalizing the Fockian in SOSCF/NRSCF***

               *****************************************************
               *                     SUCCESS                       *
               *           SCF CONVERGED AFTER   4 CYCLES          *
               *****************************************************

Setting up the final grid:

General Integration Accuracy     IntAcc      ...  4.670
Radial Grid Type                 RadialGrid  ... Gauss-Chebyshev
Angular Grid (max. acc.)         AngularGrid ... Lebedev-302
Angular grid pruning method      GridPruning ... 3 (G Style)
Weight generation scheme         WeightScheme... Becke
Basis function cutoff            BFCut       ...    1.0000e-11
Integration weight cutoff        WCut        ...    1.0000e-14
Grids for H and He will be reduced by one unit

# of grid points (after initial pruning)     ...  13000 (   0.0 sec)
# of grid points (after weights+screening)   ...  12900 (   0.0 sec)
nearest neighbour list constructed           ...    0.0 sec
Grid point re-assignment to atoms done       ...    0.0 sec
Grid point division into batches done        ...    0.1 sec
Reduced shell lists constructed in    0.1 sec

Total number of grid points                  ...    12900
Total number of batches                      ...      203
Average number of points per batch           ...       63
Average number of grid points per atom       ...     4300
Average number of shells per batch           ...    10.37 (86.40%)
Average number of basis functions per batch  ...    20.61 (85.89%)
Average number of large shells per batch     ...     9.69 (93.43%)
Average number of large basis fcns per batch ...    19.28 (93.56%)
Maximum spatial batch extension              ...  21.92, 16.88, 16.88 au
Average spatial batch extension              ...   3.53,  3.16,  3.46 au

Final grid set up in    0.1 sec
Final integration                            ... done (   0.1 sec)
Change in XC energy                          ...    -0.000506683
Integrated number of electrons               ...     9.999974288
Previous integrated no of electrons          ...     9.997464263
Total Energy       :          -76.32115530 Eh           -2076.80422 eV
  Last Energy change         ...   -1.9973e-08  Tolerance :   1.0000e-08
  Last MAX-Density change    ...    2.7069e-06  Tolerance :   1.0000e-07
             **** THE GBW FILE WAS UPDATED (water1.gbw) ****
             **** DENSITY FILE WAS UPDATED (water1.scfp.tmp) ****
             **** ENERGY FILE WAS UPDATED (water1.en.tmp) ****
Total SCF time: 0 days 0 hours 0 min 1 sec 

-------------------------   --------------------
FINAL SINGLE POINT ENERGY       -76.321155296517
-------------------------   --------------------

------------------------------------------------------------------------------
                         ORCA SCF GRADIENT CALCULATION
------------------------------------------------------------------------------

Gradient of the Kohn-Sham DFT energy:
Kohn-Sham wavefunction type      ... RKS
Hartree-Fock exchange scaling    ...    0.200
Number of operators              ...    1
Number of atoms                  ...    3
Basis set dimensions             ...   24
Integral neglect threshold       ... 2.5e-11
Integral primitive cutoff        ... 2.5e-12

Nuclear repulsion gradient       ... done
One Electron Gradient            ... done
Pre-screening matrix             ... done
Starting the two electron gradient:
Two electron gradient done
Exchange-correlation gradient    ... done

------------------
CARTESIAN GRADIENT
------------------

   1   O   :   -0.000000000    0.000000001   -0.000034050
   2   H   :   -0.000000000    0.000140200    0.000017025
   3   H   :    0.000000000   -0.000140200    0.000017025

Difference to translation invariance:
           :   -0.0000000000    0.0000000000    0.0000000000

Norm of the cartesian gradient     ...    0.0002026107
RMS gradient                       ...    0.0000675369
MAX gradient                       ...    0.0001402001

-------
TIMINGS
-------

Total SCF gradient time            ...        0.448 sec

One electron gradient       ....       0.008 sec  (  1.7%)
Prescreening matrices       ....       0.002 sec  (  0.5%)
Two electron gradient       ....       0.029 sec  (  6.5%)
XC gradient                 ....       0.190 sec  ( 42.4%)
------------------------------------------------------------------------------
                         ORCA GEOMETRY RELAXATION STEP
------------------------------------------------------------------------------

Reading the OPT-File                    .... done
Getting information on internals        .... done
Copying old internal coords+grads       .... done
Making the new internal coordinates     .... (new redundants).... done
Validating the new internal coordinates .... (new redundants).... done
Calculating the B-matrix                .... done
Calculating the G,G- and P matrices     .... done
Transforming gradient to internals      .... done
Projecting the internal gradient        .... done
Number of atoms                         ....   3
Number of internal coordinates          ....   3
Current Energy                          ....   -76.321155297 Eh
Current gradient norm                   ....     0.000202611 Eh/bohr
Maximum allowed component of the step   ....  0.300
Current trust radius                    ....  0.300
Updating the Hessian (BFGS)             .... done
Forming the augmented Hessian           .... done
Diagonalizing the augmented Hessian     .... done
Last element of RFO vector              ....  0.999999688
Lowest eigenvalues of augmented Hessian:
 -0.000000141  0.155435152  0.448899677
Length of the computed step             ....  0.000790062
The final length of the internal step   ....  0.000790062
Converting the step to cartesian space:
 Initial RMS(Int)=    0.0004561426
Transforming coordinates:
 Iter   0:  RMS(Cart)=    0.0002880268 RMS(Int)=    0.0004561486
 Iter   1:  RMS(Cart)=    0.0000000465 RMS(Int)=    0.0000001135
done
Storing new coordinates                 .... done

                                .--------------------.
          ----------------------|Geometry convergence|-------------------------
          Item                value                   Tolerance       Converged
          ---------------------------------------------------------------------
          Energy change      -0.0000072423            0.0000050000      NO
          RMS gradient        0.0001254040            0.0001000000      NO
          MAX gradient        0.0001347950            0.0003000000      YES
          RMS step            0.0004561426            0.0020000000      YES
          MAX step            0.0007570465            0.0040000000      YES
          ........................................................
          Max(Bonds)      0.0001      Max(Angles)    0.04
          Max(Dihed)        0.00      Max(Improp)    0.00
          ---------------------------------------------------------------------

       The step convergence is overachieved with 
       reasonable convergence on the gradient
       Convergence will therefore be signaled now


                    ***********************HURRAY********************
                    ***        THE OPTIMIZATION HAS CONVERGED     ***
                    *************************************************


    ---------------------------------------------------------------------------
                         Redundant Internal Coordinates

                          --- Optimized Parameters ---  
                            (Angstroem and degrees)

        Definition                    OldVal   dE/dq     Step     FinalVal
    ----------------------------------------------------------------------------
     1. B(H   1,O   0)                0.9670  0.000120 -0.0001    0.9669   
     2. B(H   2,O   0)                0.9670  0.000120 -0.0001    0.9669   
     3. A(H   1,O   0,H   2)          103.18  0.000135   -0.04    103.13   
    ----------------------------------------------------------------------------
                 *******************************************************
                 *** FINAL ENERGY EVALUATION AT THE STATIONARY POINT ***
                 ***               (AFTER    4 CYCLES)               ***
                 *******************************************************
---------------------------------
CARTESIAN COORDINATES (ANGSTROEM)
---------------------------------
  O      0.000000   -0.000000   -0.000681
  H      0.000000    0.757406    0.600341
  H      0.000000   -0.757406    0.600341

----------------------------
CARTESIAN COORDINATES (A.U.)
----------------------------
  NO LB      ZA    FRAG     MASS         X           Y           Z
   0 O     8.0000    0    15.999    0.000000   -0.000000   -0.001287
   1 H     1.0000    0     1.008    0.000000    1.431289    1.134479
   2 H     1.0000    0     1.008    0.000000   -1.431289    1.134479

--------------------------------
INTERNAL COORDINATES (ANGSTROEM)
--------------------------------
 O      0   0   0     0.000000000000     0.00000000     0.00000000
 H      1   0   0     0.966897119676     0.00000000     0.00000000
 H      1   2   0     0.966897118547   103.13412534     0.00000000

---------------------------
INTERNAL COORDINATES (A.U.)
---------------------------
 O      0   0   0     0.000000000000     0.00000000     0.00000000
 H      1   0   0     1.827170755864     0.00000000     0.00000000
 H      1   2   0     1.827170753731   103.13412534     0.00000000

---------------------
BASIS SET INFORMATION
---------------------
There are 2 groups of distinct atoms

 Group   1 Type O   : 7s4p1d contracted to 3s2p1d pattern {511/31/1}
 Group   2 Type H   : 4s1p contracted to 2s1p pattern {31/1}

Atom   0O    basis set group =>   1
Atom   1H    basis set group =>   2
Atom   2H    basis set group =>   2
------------------------------------------------------------------------------
                           ORCA GTO INTEGRAL CALCULATION
------------------------------------------------------------------------------

                         BASIS SET STATISTICS AND STARTUP INFO

 # of primitive gaussian shells          ...   22
 # of primitive gaussian functions       ...   38
 # of contracted shells                  ...   12
 # of contracted basis functions         ...   24
 Highest angular momentum                ...    2
 Maximum contraction depth               ...    5
 Integral package used                   ... LIBINT
 Integral threshhold            Thresh   ...  2.500e-11
 Primitive cut-off              TCut     ...  2.500e-12


------------------------------ INTEGRAL EVALUATION ----------------------------


 * One electron integrals 
 Pre-screening matrix                    ... done
 Shell pair data                         ... done (   0.000 sec)

-------------------------------------------------------------------------------
                                 ORCA SCF
-------------------------------------------------------------------------------

------------
SCF SETTINGS
------------
Hamiltonian:
 Density Functional     Method          .... DFT(GTOs)
 Exchange Functional    Exchange        .... B88
   X-Alpha parameter    XAlpha          ....  0.666667
   Becke's b parameter  XBeta           ....  0.004200
 Correlation Functional Correlation     .... LYP
 LDA part of GGA corr.  LDAOpt          .... VWN-5
 Gradients option       PostSCFGGA      .... off
 Hybrid DFT is turned on
   Fraction HF Exchange ScalHFX         ....  0.200000
   Scaling of DF-GGA-X  ScalDFX         ....  0.720000
   Scaling of DF-GGA-C  ScalDFC         ....  0.810000
   Scaling of DF-LDA-C  ScalLDAC        ....  1.000000
   Perturbative correction              ....  0.000000
   Density functional embedding theory  .... OFF
   NL short-range parameter             ....  4.800000


General Settings:
 Integral files         IntName         .... water1
 Hartree-Fock type      HFTyp           .... RHF
 Total Charge           Charge          ....    0
 Multiplicity           Mult            ....    1
 Number of Electrons    NEL             ....   10
 Basis Dimension        Dim             ....   24
 Nuclear Repulsion      ENuc            ....      9.1060430179 Eh

Convergence Acceleration:
 DIIS                   CNVDIIS         .... on
   Start iteration      DIISMaxIt       ....    12
   Startup error        DIISStart       ....  0.200000
   # of expansion vecs  DIISMaxEq       ....     5
   Bias factor          DIISBfac        ....   1.050
   Max. coefficient     DIISMaxC        ....  10.000
 Newton-Raphson         CNVNR           .... off
 SOSCF                  CNVSOSCF        .... on
   Start iteration      SOSCFMaxIt      ....   150
   Startup grad/error   SOSCFStart      ....  0.003300
 Level Shifting         CNVShift        .... on
   Level shift para.    LevelShift      ....    0.2500
   Turn off err/grad.   ShiftErr        ....    0.0010
 Zerner damping         CNVZerner       .... off
 Static damping         CNVDamp         .... on
   Fraction old density DampFac         ....    0.7000
   Max. Damping (<1)    DampMax         ....    0.9800
   Min. Damping (>=0)   DampMin         ....    0.0000
   Turn off err/grad.   DampErr         ....    0.1000
 Fernandez-Rico         CNVRico         .... off

SCF Procedure:
 Maximum # iterations   MaxIter         ....   125
 SCF integral mode      SCFMode         .... Direct
   Integral package                     .... LIBINT
 Reset frequency        DirectResetFreq ....    20
 Integral Threshold     Thresh          ....  2.500e-11 Eh
 Primitive CutOff       TCut            ....  2.500e-12 Eh

Convergence Tolerance:
 Convergence Check Mode ConvCheckMode   .... Total+1el-Energy
 Convergence forced     ConvForced      .... 0
 Energy Change          TolE            ....  1.000e-08 Eh
 1-El. energy change                    ....  1.000e-05 Eh
 Orbital Gradient       TolG            ....  1.000e-05
 Orbital Rotation angle TolX            ....  1.000e-05
 DIIS Error             TolErr          ....  5.000e-07


Diagonalization of the overlap matrix:
Smallest eigenvalue                        ... 3.796e-02
Time for diagonalization                   ...    0.009 sec
Threshold for overlap eigenvalues          ... 1.000e-08
Number of eigenvalues below threshold      ... 0
Time for construction of square roots      ...    0.004 sec
Total time needed                          ...    0.013 sec

---------------------
INITIAL GUESS: MOREAD
---------------------
Guess MOs are being read from file: water1.gbw
Input Geometry matches current geometry (good)
Input basis set matches current basis set (good)
MOs were renormalized
MOs were reorthogonalized (Cholesky)
                      ------------------
                      INITIAL GUESS DONE (   0.0 sec)
                      ------------------
-------------------
DFT GRID GENERATION
-------------------

General Integration Accuracy     IntAcc      ...  4.340
Radial Grid Type                 RadialGrid  ... Gauss-Chebyshev
Angular Grid (max. acc.)         AngularGrid ... Lebedev-110
Angular grid pruning method      GridPruning ... 3 (G Style)
Weight generation scheme         WeightScheme... Becke
Basis function cutoff            BFCut       ...    1.0000e-11
Integration weight cutoff        WCut        ...    1.0000e-14
Grids for H and He will be reduced by one unit

# of grid points (after initial pruning)     ...   3304 (   0.0 sec)
# of grid points (after weights+screening)   ...   3252 (   0.0 sec)
nearest neighbour list constructed           ...    0.0 sec
Grid point re-assignment to atoms done       ...    0.0 sec
Grid point division into batches done        ...    0.0 sec
Reduced shell lists constructed in    0.0 sec

Total number of grid points                  ...     3252
Total number of batches                      ...       52
Average number of points per batch           ...       62
Average number of grid points per atom       ...     1084
Average number of shells per batch           ...    11.36 (94.65%)
Average number of basis functions per batch  ...    22.83 (95.13%)
Average number of large shells per batch     ...    10.89 (95.85%)
Average number of large basis fcns per batch ...    22.06 (96.61%)
Maximum spatial batch extension              ...  25.65, 13.09, 18.77 au
Average spatial batch extension              ...   6.15,  4.37,  4.97 au

Time for grid setup =    0.020 sec

--------------
SCF ITERATIONS
--------------
ITER       Energy         Delta-E        Max-DP      RMS-DP      [F,P]     Damp
               ***  Starting incremental Fock matrix formation  ***
                      *** Initiating the SOSCF procedure ***
                      *** Re-Reading the Fockian *** 
                      *** Removing any level shift *** 
ITER      Energy       Delta-E        Grad      Rot      Max-DP    RMS-DP
  0    -76.32064668 -76.3206466789  0.000067  0.000067  0.000160  0.000017
               *** Restarting incremental Fock matrix formation ***
  1    -76.32064671  -0.0000000332  0.000015  0.000015  0.000034  0.000004
  2    -76.32064671  -0.0000000010  0.000008  0.000006  0.000012  0.000001
  3    -76.32064671  -0.0000000001  0.000006  0.000003  0.000008  0.000001
                 **** Energy Check signals convergence ****
              ***Rediagonalizing the Fockian in SOSCF/NRSCF***

               *****************************************************
               *                     SUCCESS                       *
               *           SCF CONVERGED AFTER   4 CYCLES          *
               *****************************************************

Setting up the final grid:

General Integration Accuracy     IntAcc      ...  4.670
Radial Grid Type                 RadialGrid  ... Gauss-Chebyshev
Angular Grid (max. acc.)         AngularGrid ... Lebedev-302
Angular grid pruning method      GridPruning ... 3 (G Style)
Weight generation scheme         WeightScheme... Becke
Basis function cutoff            BFCut       ...    1.0000e-11
Integration weight cutoff        WCut        ...    1.0000e-14
Grids for H and He will be reduced by one unit

# of grid points (after initial pruning)     ...  13000 (   0.0 sec)
# of grid points (after weights+screening)   ...  12900 (   0.0 sec)
nearest neighbour list constructed           ...    0.0 sec
Grid point re-assignment to atoms done       ...    0.0 sec
Grid point division into batches done        ...    0.1 sec
Reduced shell lists constructed in    0.1 sec

Total number of grid points                  ...    12900
Total number of batches                      ...      203
Average number of points per batch           ...       63
Average number of grid points per atom       ...     4300
Average number of shells per batch           ...    10.37 (86.40%)
Average number of basis functions per batch  ...    20.61 (85.89%)
Average number of large shells per batch     ...     9.69 (93.43%)
Average number of large basis fcns per batch ...    19.28 (93.56%)
Maximum spatial batch extension              ...  21.92, 16.88, 16.88 au
Average spatial batch extension              ...   3.54,  3.15,  3.46 au

Final grid set up in    0.1 sec
Final integration                            ... done (   0.1 sec)
Change in XC energy                          ...    -0.000508764
Integrated number of electrons               ...     9.999974304
Previous integrated no of electrons          ...     9.997457032

----------------
TOTAL SCF ENERGY
----------------

Total Energy       :          -76.32115548 Eh           -2076.80422 eV

Components:
Nuclear Repulsion  :            9.10604302 Eh             247.78803 eV
Electronic Energy  :          -85.42719850 Eh           -2324.59225 eV
One Electron Energy:         -122.95757304 Eh           -3345.84566 eV
Two Electron Energy:           37.53037454 Eh            1021.25341 eV

Virial components:
Potential Energy   :         -152.15620483 Eh           -4140.38083 eV
Kinetic Energy     :           75.83504935 Eh            2063.57660 eV
Virial Ratio       :            2.00641005


DFT components:
N(Alpha)           :        4.999987152208 electrons
N(Beta)            :        4.999987152208 electrons
N(Total)           :        9.999974304416 electrons
E(X)               :       -7.122156141201 Eh       
E(C)               :       -0.402189707791 Eh       
E(XC)              :       -7.524345848992 Eh       
DFET-embed. en.    :        0.000000000000 Eh       

---------------
SCF CONVERGENCE
---------------

  Last Energy change         ...   -1.1367e-10  Tolerance :   1.0000e-08
  Last MAX-Density change    ...    3.2891e-07  Tolerance :   1.0000e-07
  Last RMS-Density change    ...    2.6767e-08  Tolerance :   5.0000e-09
  Last Orbital Gradient      ...    2.6168e-07  Tolerance :   1.0000e-05
  Last Orbital Rotation      ...    1.6776e-07  Tolerance :   1.0000e-05

             **** THE GBW FILE WAS UPDATED (water1.gbw) ****
             **** DENSITY FILE WAS UPDATED (water1.scfp.tmp) ****
             **** ENERGY FILE WAS UPDATED (water1.en.tmp) ****
----------------
ORBITAL ENERGIES
----------------

  NO   OCC          E(Eh)            E(eV) 
   0   2.0000     -19.115932      -520.1710 
   1   2.0000      -0.976145       -26.5623 
   2   2.0000      -0.507957       -13.8222 
   3   2.0000      -0.364491        -9.9183 
   4   2.0000      -0.287767        -7.8305 
   5   0.0000       0.048136         1.3099 
   6   0.0000       0.126024         3.4293 
   7   0.0000       0.558453        15.1963 
   8   0.0000       0.624153        16.9841 
   9   0.0000       0.920693        25.0533 
  10   0.0000       0.924149        25.1474 
  11   0.0000       1.010529        27.4979 
  12   0.0000       1.099088        29.9077 
  13   0.0000       1.351253        36.7695 
  14   0.0000       1.400534        38.1105 
  15   0.0000       1.546325        42.0776 
  16   0.0000       1.790033        48.7093 
  17   0.0000       2.201621        59.9091 
  18   0.0000       2.249126        61.2018 
  19   0.0000       2.965134        80.6854 
  20   0.0000       3.001348        81.6708 
  21   0.0000       3.188621        86.7668 
  22   0.0000       3.487634        94.9034 
  23   0.0000       3.823563       104.0445 

                    ********************************
                    * MULLIKEN POPULATION ANALYSIS *
                    ********************************

-----------------------
MULLIKEN ATOMIC CHARGES
-----------------------
   0 O :   -0.292350
   1 H :    0.146175
   2 H :    0.146175
Sum of atomic charges:    0.0000000

--------------------------------
MULLIKEN REDUCED ORBITAL CHARGES
--------------------------------
  0 O s       :     3.686853  s :     3.686853
      pz      :     1.492389  p :     4.594632
      px      :     1.959068
      py      :     1.143175
      dz2     :     0.001558  d :     0.010866
      dxz     :     0.001222
      dyz     :     0.007357
      dx2y2   :     0.000729
      dxy     :     0.000000
  1 H s       :     0.783294  s :     0.783294
      pz      :     0.022071  p :     0.070531
      px      :     0.019855
      py      :     0.028604
  2 H s       :     0.783294  s :     0.783294
      pz      :     0.022071  p :     0.070531
      px      :     0.019855
      py      :     0.028604


                     *******************************
                     * LOEWDIN POPULATION ANALYSIS *
                     *******************************

----------------------
LOEWDIN ATOMIC CHARGES
----------------------
   0 O :   -0.149462
   1 H :    0.074731
   2 H :    0.074731

-------------------------------
LOEWDIN REDUCED ORBITAL CHARGES
-------------------------------
  0 O s       :     3.439983  s :     3.439983
      pz      :     1.567680  p :     4.689377
      px      :     1.892139
      py      :     1.229557
      dz2     :     0.001021  d :     0.020103
      dxz     :     0.000373
      dyz     :     0.015501
      dx2y2   :     0.003208
      dxy     :     0.000000
  1 H s       :     0.750333  s :     0.750333
      pz      :     0.061419  p :     0.174936
      px      :     0.053744
      py      :     0.059773
  2 H s       :     0.750333  s :     0.750333
      pz      :     0.061419  p :     0.174936
      px      :     0.053744
      py      :     0.059773


                      *****************************
                      * MAYER POPULATION ANALYSIS *
                      *****************************

  NA   - Mulliken gross atomic population
  ZA   - Total nuclear charge
  QA   - Mulliken gross atomic charge
  VA   - Mayer's total valence
  BVA  - Mayer's bonded valence
  FA   - Mayer's free valence

  ATOM       NA         ZA         QA         VA         BVA        FA
  0 O      8.2924     8.0000    -0.2924     2.0169     2.0169     0.0000
  1 H      0.8538     1.0000     0.1462     1.0138     1.0138    -0.0000
  2 H      0.8538     1.0000     0.1462     1.0138     1.0138    -0.0000

  Mayer bond orders larger than 0.1
B(  0-O ,  1-H ) :   1.0085 B(  0-O ,  2-H ) :   1.0085 

-------
TIMINGS
-------

Total SCF time: 0 days 0 hours 0 min 1 sec 

Total time                  ....       1.683 sec
Sum of individual times     ....       1.338 sec  ( 79.5%)

Fock matrix formation       ....       1.194 sec  ( 71.0%)
  XC integration            ....       0.152 sec  ( 12.8% of F)
    Basis function eval.    ....       0.030 sec  ( 19.9% of XC)
    Density eval.           ....       0.024 sec  ( 15.5% of XC)
    XC-Functional eval.     ....       0.057 sec  ( 37.4% of XC)
    XC-Potential eval.      ....       0.017 sec  ( 11.0% of XC)
Diagonalization             ....       0.000 sec  (  0.0%)
Density matrix formation    ....       0.000 sec  (  0.0%)
Population analysis         ....       0.001 sec  (  0.0%)
Initial guess               ....       0.002 sec  (  0.1%)
Orbital Transformation      ....       0.000 sec  (  0.0%)
Orbital Orthonormalization  ....       0.002 sec  (  0.1%)
DIIS solution               ....       0.000 sec  (  0.0%)
SOSCF solution              ....       0.003 sec  (  0.2%)
Grid generation             ....       0.138 sec  (  8.2%)

-------------------------   --------------------
FINAL SINGLE POINT ENERGY       -76.321155477796
-------------------------   --------------------

                                *** OPTIMIZATION RUN DONE ***

                            ***************************************
                            *     ORCA property calculations      *
                            ***************************************

                                    ---------------------
                                    Active property flags
                                    ---------------------
   (+) Dipole Moment


------------------------------------------------------------------------------
                       ORCA ELECTRIC PROPERTIES CALCULATION
------------------------------------------------------------------------------

Dipole Moment Calculation                       ... on
Quadrupole Moment Calculation                   ... off
Polarizability Calculation                      ... off
GBWName                                         ... water1.gbw
Electron density file                           ... water1.scfp.tmp
The origin for moment calculation is the CENTER OF MASS  = ( 0.000000, -0.000000  0.125813)

-------------
DIPOLE MOMENT
-------------
                                X             Y             Z
Electronic contribution:     -0.00000      -0.00000      -0.21397
Nuclear contribution   :      0.00000       0.00000       1.00053
                        -----------------------------------------
Total Dipole Moment    :     -0.00000       0.00000       0.78657
                        -----------------------------------------
Magnitude (a.u.)       :      0.78657
Magnitude (Debye)      :      1.99930



--------------------
Rotational spectrum 
--------------------
 
Rotational constants in cm-1:    26.065603    14.576370     9.348510 
Rotational constants in MHz : 781427.123804 436988.584946 280261.269300 

 Dipole components along the rotational axes: 
x,y,z [a.u.] :    -0.000000     0.786568    -0.000000 
x,y,z [Debye]:    -0.000000     1.999297    -0.000000 

 

Timings for individual modules:

Sum of individual times         ...       20.749 sec (=   0.346 min)
GTO integral calculation        ...        3.350 sec (=   0.056 min)  16.1 %
SCF iterations                  ...       12.988 sec (=   0.216 min)  62.6 %
SCF Gradient evaluation         ...        2.794 sec (=   0.047 min)  13.5 %
Geometry relaxation             ...        1.616 sec (=   0.027 min)   7.8 %
                             ****ORCA TERMINATED NORMALLY****
TOTAL RUN TIME: 0 days 0 hours 0 minutes 21 seconds 474 msec
